<?xml version="1.0" encoding="UTF-8"?>

<!-- generated on 四 10/10 16:28:32 2019 by Eclipse SUMO GUI Version 1.0.1
<configuration xmlns:xsi="http://www.w3.org/2001/XMLSchema-instance" xsi:noNamespaceSchemaLocation="http://sumo.dlr.de/xsd/sumoConfiguration.xsd">

    <input>
        <net-file value="/Users/lich14/Downloads/sumo-1.0.1/docs/tutorial/roadfile/cross.net.xml"/>
        <additional-files value="/Users/lich14/Downloads/sumo-1.0.1/docs/tutorial/roadfile/cross.det.xml"/>
    </input>

    <time>
        <begin value="0"/>
    </time>

    <report>
        <verbose value="true"/>
        <no-step-log value="true"/>
    </report>

</configuration>
-->

<detector xmlns:xsi="http://www.w3.org/2001/XMLSchema-instance" xsi:noNamespaceSchemaLocation="http://sumo.dlr.de/xsd/det_e1_file.xsd">
</detector>
